# vtk DataFile Version 3.0
write mesh on file
ASCII
DATASET UNSTRUCTURED_GRID
POINTS 8745 double
0.000000 0.000000 10.507448
1000.000000 0.000000 14.172824
1000.000000 1000.000000 9.482768
0.000000 1000.000000 10.344718
800.000000 1000.000000 10.331945
1000.000000 800.000000 11.376744
44.064071 0.000000 10.991163
88.128142 0.000000 11.302828
125.428331 0.000000 11.530321
162.728520 0.000000 11.698269
196.041439 0.000000 11.991948
229.354359 0.000000 12.200305
261.353730 0.000000 12.292093
293.353102 0.000000 12.427140
326.695203 0.000000 12.572096
360.037303 0.000000 12.676179
397.396360 0.000000 12.798209
434.755418 0.000000 12.932671
478.909991 0.000000 13.091838
523.064563 0.000000 13.233459
573.223407 0.000000 13.500575
623.382250 0.000000 13.689359
669.671833 0.000000 13.754171
715.961417 0.000000 13.809498
760.648336 0.000000 13.947103
805.335255 0.000000 14.054956
851.825963 0.000000 14.112161
898.316671 0.000000 14.144279
949.158335 0.000000 14.174031
22.032035 0.000000 10.792776
66.096106 0.000000 11.161968
106.778236 0.000000 11.428424
144.078426 0.000000 11.622832
179.384980 0.000000 11.757006
212.697899 0.000000 12.001824
245.354045 0.000000 12.245389
277.353416 0.000000 12.367722
310.024152 0.000000 12.504552
343.366253 0.000000 12.630716
378.716832 0.000000 12.734570
416.075889 0.000000 12.868471
456.832704 0.000000 13.018654
500.987277 0.000000 13.169864
548.143985 0.000000 13.285889
598.302828 0.000000 13.507820
646.527042 0.000000 13.714370
692.816625 0.000000 13.797114
738.304876 0.000000 13.943748
782.991795 0.000000 14.030135
828.580609 0.000000 14.084254
875.071317 0.000000 14.131972
923.737503 0.000000 14.149358
974.579168 0.000000 14.173091
1000.000000 50.885649 14.132640
1000.000000 101.771299 13.993365
1000.000000 145.892542 13.781522
1000.000000 190.013786 13.532236
1000.000000 229.980294 13.208042
1000.000000 269.946802 12.960071
1000.000000 308.969442 12.865107
1000.000000 347.992083 12.953761
1000.000000 389.257376 13.081190
1000.000000 430.522670 13.163613
1000.000000 477.265494 13.164267
1000.000000 524.008317 13.078743
1000.000000 570.382299 12.930344
1000.000000 616.756280 12.684400
1000.000000 657.296479 12.378348
1000.000000 697.836678 12.028717
1000.000000 723.777085 11.819899
1000.000000 749.717491 11.663188
1000.000000 764.332395 11.590296
1000.000000 778.947299 11.525887
1000.000000 789.473650 11.460468
1000.000000 25.442825 14.163318
1000.000000 76.328474 14.068872
1000.000000 123.831921 13.895775
1000.000000 167.953164 13.656540
1000.000000 209.997040 13.368922
1000.000000 249.963548 13.065561
1000.000000 289.458122 12.893908
1000.000000 328.480762 12.880882
1000.000000 368.624730 13.018689
1000.000000 409.890023 13.131552
1000.000000 453.894082 13.175452
1000.000000 500.636906 13.125497
1000.000000 547.195308 13.003375
1000.000000 593.569290 12.822161
1000.000000 637.026380 12.567615
1000.000000 677.566579 12.244099
1000.000000 710.806882 11.917445
1000.000000 736.747288 11.730973
1000.000000 757.024943 11.628343
1000.000000 771.639847 11.557711
1000.000000 784.210475 11.491607
1000.000000 794.736825 11.423537
988.888889 1000.000000 9.512961
977.777778 1000.000000 9.534233
966.666667 1000.000000 9.565300
955.555556 1000.000000 9.591469
944.444444 1000.000000 9.616204
933.333333 1000.000000 9.644294
922.222222 1000.000000 9.670908
911.111111 1000.000000 9.690229
900.000000 1000.000000 9.709846
888.888889 1000.000000 9.736920
877.777778 1000.000000 9.772062
866.666667 1000.000000 9.819885
855.555556 1000.000000 9.878310
844.444444 1000.000000 9.951601
833.333333 1000.000000 10.053114
822.222222 1000.000000 10.166439
811.111111 1000.000000 10.241860
994.444444 1000.000000 9.495488
983.333333 1000.000000 9.526764
972.222222 1000.000000 9.538792
961.111111 1000.000000 9.568463
950.000000 1000.000000 9.593962
938.888889 1000.000000 9.618655
927.777778 1000.000000 9.646562
916.666667 1000.000000 9.672722
905.555556 1000.000000 9.692351
894.444444 1000.000000 9.713683
883.333333 1000.000000 9.742990
872.222222 1000.000000 9.780737
861.111111 1000.000000 9.828231
850.000000 1000.000000 9.884141
838.888889 1000.000000 9.954345
827.777778 1000.000000 10.052769
816.666667 1000.000000 10.203018
805.555556 1000.000000 10.294511
0.000000 953.896219 10.425958
0.000000 907.792437 10.391136
0.000000 865.963468 10.315377
0.000000 824.134498 10.246336
0.000000 783.212232 10.246821
0.000000 742.289965 10.315536
0.000000 698.932070 10.382443
0.000000 655.574174 10.452315
0.000000 606.374223 10.321627
0.000000 557.174271 10.307050
0.000000 504.300761 10.505297
0.000000 451.427251 10.485082
0.000000 400.841387 10.469941
0.000000 350.255522 10.544355
0.000000 305.668062 10.481568
0.000000 261.080601 10.436689
0.000000 219.295198 10.384719
0.000000 177.509794 10.382089
0.000000 135.133205 10.429176
0.000000 92.756617 10.586182
0.000000 46.378308 10.659313
0.000000 976.948109 10.490166
0.000000 930.844328 10.465810
0.000000 886.877953 10.402872
0.000000 845.048983 10.308147
0.000000 803.673365 10.268293
0.000000 762.751098 10.316678
0.000000 720.611017 10.409051
0.000000 677.253122 10.474439
0.000000 630.974199 10.529289
0.000000 581.774247 10.589824
0.000000 530.737516 10.596535
0.000000 477.864006 10.641469
0.000000 426.134319 10.599096
0.000000 375.548454 10.622435
0.000000 327.961792 10.589665
0.000000 283.374332 10.556088
0.000000 240.187900 10.502524
0.000000 198.402496 10.476909
0.000000 156.321499 10.577633
0.000000 113.944911 10.655849
0.000000 69.567463 10.740399
0.000000 23.189154 10.745656
789.743785 1000.000000 10.540941
779.487571 1000.000000 10.711573
765.554606 1000.000000 10.806699
751.621640 1000.000000 10.885953
727.245846 1000.000000 11.066744
702.870052 1000.000000 11.155313
663.066571 1000.000000 11.288069
623.263090 1000.000000 11.449619
576.407534 1000.000000 11.494703
529.551979 1000.000000 11.515422
484.207870 1000.000000 11.513638
438.863762 1000.000000 11.494886
400.539053 1000.000000 11.435931
362.214344 1000.000000 11.361765
328.130854 1000.000000 11.329818
294.047365 1000.000000 11.274936
261.545316 1000.000000 11.194973
229.043267 1000.000000 11.129116
195.487476 1000.000000 11.068024
161.931684 1000.000000 10.957147
124.672029 1000.000000 10.861088
87.412374 1000.000000 10.758306
43.706187 1000.000000 10.603960
794.871893 1000.000000 10.534826
784.615678 1000.000000 10.671305
772.521088 1000.000000 10.764707
758.588123 1000.000000 10.853528
739.433743 1000.000000 10.912320
715.057949 1000.000000 11.058033
682.968311 1000.000000 11.281442
643.164830 1000.000000 11.425574
599.835312 1000.000000 11.475480
552.979757 1000.000000 11.507116
506.879925 1000.000000 11.515117
461.535816 1000.000000 11.503350
419.701407 1000.000000 11.487897
381.376698 1000.000000 11.432358
345.172599 1000.000000 11.345640
311.089110 1000.000000 11.299217
277.796341 1000.000000 11.264979
245.294292 1000.000000 11.194559
212.265371 1000.000000 11.079090
178.709580 1000.000000 10.991274
143.301857 1000.000000 10.909831
106.042201 1000.000000 10.806367
65.559280 1000.000000 10.667745
21.853093 1000.000000 10.472047
1000.000000 811.111111 11.288403
1000.000000 822.222222 11.224915
1000.000000 833.333333 11.191448
1000.000000 844.444444 11.151404
1000.000000 855.555556 11.085942
1000.000000 866.666667 11.025080
1000.000000 877.777778 10.953165
1000.000000 888.888889 10.826353
1000.000000 900.000000 10.794706
1000.000000 911.111111 10.717561
1000.000000 922.222222 10.596766
1000.000000 933.333333 10.485163
1000.000000 944.444444 10.367436
1000.000000 955.555556 10.242495
1000.000000 966.666667 10.071972
1000.000000 977.777778 9.897266
1000.000000 988.888889 9.697602
1000.000000 805.555556 11.320679
1000.000000 816.666667 11.249182
1000.000000 827.777778 11.201130
1000.000000 838.888889 11.160162
1000.000000 850.000000 11.122323
1000.000000 861.111111 11.065747
1000.000000 872.222222 11.004981
1000.000000 883.333333 10.936260
1000.000000 894.444444 10.851084
1000.000000 905.555556 10.763022
1000.000000 916.666667 10.647357
1000.000000 927.777778 10.537261
1000.000000 938.888889 10.423114
1000.000000 950.000000 10.298147
1000.000000 961.111111 10.146623
1000.000000 972.222222 9.980283
1000.000000 983.333333 9.788386
1000.000000 994.444444 9.589597
888.476611 946.124236 10.632507
566.020120 494.412312 12.310097
275.928441 601.328010 11.728306
821.634895 390.330618 12.959032
800.984440 651.106883 12.357733
937.687806 941.833754 10.531757
328.294620 846.300133 11.007323
619.800443 140.186354 13.212172
693.536092 897.473246 11.513023
103.392092 331.335265 11.230632
976.298576 951.906815 10.349380
224.130078 788.822008 10.200787
110.461519 722.969340 10.823330
123.633349 178.146538 11.020164
807.322050 101.314620 13.867013
39.508657 214.103413 10.610383
876.702898 906.968392 11.007337
152.902386 888.550105 10.833619
113.235509 906.471916 10.771214
974.471071 975.487537 9.969270
987.707448 986.878917 9.750433
836.158280 487.474631 13.031718
437.147301 707.878184 11.662587
291.744360 423.708518 12.027078
183.751173 449.399023 11.552049
650.720539 702.163190 11.730185
408.963844 532.855681 11.548785
308.759211 740.919252 11.196985
713.639886 432.155572 12.852022
764.803647 276.488366 12.197505
775.110953 753.713160 10.916188
553.937380 839.037367 11.480775
263.673154 163.510173 11.541181
279.774838 832.727526 10.738474
498.474301 70.911564 13.149298
225.023064 722.711151 11.123054
144.209420 810.175885 10.432578
263.133900 888.466106 11.085756
465.592038 900.358920 11.441199
932.019258 418.276294 13.126512
894.104179 705.296874 11.884227
934.251187 668.820565 12.299079
186.013149 746.300920 10.846778
115.424602 676.120370 11.000460
301.974147 47.226282 12.392837
867.982029 725.021330 11.623678
283.258681 954.877656 11.240045
210.551003 841.613984 10.691961
208.540303 141.445020 11.603624
933.945698 288.687467 12.839552
972.476975 786.405916 11.475881
198.266869 57.737137 11.883034
181.586159 920.355056 10.980781
907.438127 854.797505 11.291621
808.382038 890.306505 11.365842
[...]
POINT_DATA 8745
SCALARS head double 1
LOOKUP_TABLE default
10.507448
14.172824
9.482768
10.344718
10.331945
11.376744
10.991163
11.302828
11.530321
11.698269
11.991948
12.200305
12.292093
12.427140
12.572096
12.676179
12.798209
12.932671
13.091838
13.233459
13.500575
13.689359
13.754171
13.809498
13.947103
14.054956
14.112161
14.144279
14.174031
10.792776
11.161968
11.428424
11.622832
11.757006
12.001824
12.245389
12.367722
12.504552
12.630716
12.734570
12.868471
13.018654
13.169864
13.285889
13.507820
13.714370
13.797114
13.943748
14.030135
14.084254
14.131972
14.149358
14.173091
14.132640
13.993365
13.781522
13.532236
13.208042
12.960071
12.865107
12.953761
13.081190
13.163613
13.164267
13.078743
12.930344
12.684400
12.378348
12.028717
11.819899
11.663188
11.590296
11.525887
11.460468
14.163318
14.068872
13.895775
13.656540
13.368922
13.065561
12.893908
12.880882
13.018689
13.131552
13.175452
13.125497
13.003375
12.822161
12.567615
12.244099
11.917445
11.730973
11.628343
11.557711
11.491607
11.423537
9.512961
9.534233
9.565300
9.591469
9.616204
9.644294
9.670908
9.690229
9.709846
9.736920
9.772062
9.819885
9.878310
9.951601
10.053114
10.166439
10.241860
9.495488
9.526764
9.538792
9.568463
9.593962
9.618655
9.646562
9.672722
9.692351
9.713683
9.742990
9.780737
9.828231
9.884141
9.954345
10.052769
10.203018
10.294511
10.425958
10.391136
10.315377
10.246336
10.246821
10.315536
10.382443
10.452315
10.321627
10.307050
10.505297
10.485082
10.469941
10.544355
10.481568
10.436689
10.384719
10.382089
10.429176
10.586182
10.659313
10.490166
10.465810
10.402872
10.308147
10.268293
10.316678
10.409051
10.474439
10.529289
10.589824
10.596535
10.641469
10.599096
10.622435
10.589665
10.556088
10.502524
10.476909
10.577633
10.655849
10.740399
10.745656
10.540941
10.711573
10.806699
10.885953
11.066744
11.155313
11.288069
11.449619
11.494703
11.515422
11.513638
11.494886
11.435931
11.361765
11.329818
11.274936
11.194973
11.129116
11.068024
10.957147
10.861088
10.758306
10.603960
10.534826
10.671305
10.764707
10.853528
10.912320
11.058033
11.281442
11.425574
11.475480
11.507116
11.515117
11.503350
11.487897
11.432358
11.345640
11.299217
11.264979
11.194559
11.079090
10.991274
10.909831
10.806367
10.667745
10.472047
11.288403
11.224915
11.191448
11.151404
11.085942
11.025080
10.953165
10.826353
10.794706
10.717561
10.596766
10.485163
10.367436
10.242495
10.071972
9.897266
9.697602
11.320679
11.249182
11.201130
11.160162
11.122323
11.065747
11.004981
10.936260
10.851084
10.763022
10.647357
10.537261
10.423114
10.298147
10.146623
9.980283
9.788386
9.589597
10.632507
12.310097
11.728306
12.959032
12.357733
10.531757
11.007323
13.212172
11.513023
11.230632
10.349380
10.200787
10.823330
11.020164
13.867013
10.610383
11.007337
10.833619
10.771214
9.969270
9.750433
13.031718
11.662587
12.027078
11.552049
11.730185
11.548785
11.196985
12.852022
12.197505
10.916188
11.480775
11.541181
10.738474
13.149298
11.123054
10.432578
11.085756
11.441199
13.126512
11.884227
12.299079
10.846778
11.000460
12.392837
11.623678
11.240045
10.691961
11.603624
12.839552
11.475881
11.883034
10.980781
11.291621
11.365842
10.789812
10.953766
10.842456
10.111035
10.283053
10.169427
11.349717
11.639930
10.034322
13.426620
10.846424
10.103089
13.888588
11.293847
11.036134
11.780240
11.241189
12.088949
11.830427
12.116587
11.535142
10.685878
11.366267
12.206929
11.986895
12.985101
11.609326
11.404742
11.055820
12.338357
11.971489
11.506742
12.750683
11.533645
12.718228
11.092098
12.464755
12.562498
12.804691
11.740239
11.421697
11.214795
12.887862
12.506910
10.916571
12.013495
11.262828
11.452514
11.402027
11.068077
12.281073
10.992690
11.231321
11.438313
12.386306
12.612995
10.864790
10.771756
11.670745
12.695175
11.553556
11.227277
11.478288
11.439456
12.948829
11.345563
11.217893
11.363046
12.147590
11.865461
10.632746
13.481850
11.729796
11.187180
9.810213
12.832692
11.518678
11.332293
11.250056
10.353019
11.533472
10.256836
12.647914
10.402241
10.876616
11.559771
10.932835
10.850860
11.103644
13.275532
11.438443
11.348771
10.605946
10.695296
11.202322
10.990173
11.081245
12.929711
10.983565
11.006831
11.959388
13.658466
10.927666
11.397223
12.750028
10.208703
11.882358
13.079156
11.155745
10.840112
10.570540
11.179431
13.898721
10.700161
12.101780
11.079386
11.656144
13.693608
10.936242
10.542977
10.706798
11.615001
11.900606
12.261573
11.767267
12.053823
12.297342
12.142076
11.693113
12.081232
11.363932
11.467780
12.102025
12.090036
10.807752
11.781973
11.643009
11.539346
11.690481
12.168744
12.580548
11.952962
12.277980
11.663781
12.166334
10.987031
12.394768
12.446092
11.760225
11.915668
11.885636
11.820387
11.331871
11.335779
11.163911
11.490253
12.511330
11.242247
11.941495
12.714081
10.976705
12.328511
12.323052
11.748030
11.800806
11.826953
12.393828
11.411078
12.170183
12.676947
12.107226
12.290454
13.315997
12.802241
11.619982
11.879593
10.472916
11.441564
11.591462
12.570661
11.471581
12.540980
12.195116
11.647140
12.405915
11.918834
12.800229
10.406419
11.547055
12.559891
11.220097
12.899173
11.656188
11.342399
12.518064
11.558601
12.456314
10.996784
11.994228
11.745879
11.737925
11.474957
13.255180
11.567366
10.937815
12.746028
10.856976
11.074665
11.557397
11.039115
12.287559
10.676356
12.213604
11.086608
10.633732
12.659828
12.620794
11.020874
12.004129
11.013594
11.388588
12.468508
11.069023
11.448591
11.123151
12.270175
11.272130
12.333082
12.513802
9.903583
12.142784
11.864989
12.788619
11.509907
12.558893
11.433682
12.442886
12.851420
11.034790
12.149171
14.054705
13.404526
10.992468
11.692949
11.248223
11.213409
11.353641
11.521351
11.252243
10.767284
12.551963
12.100549
10.198662
10.227097
12.909230
11.514758
10.656120
11.194265
11.562486
12.016157
10.259107
13.080620
10.778087
13.500163
11.994814
11.825647
11.738756
10.193784
10.682969
12.526230
11.084250
11.821910
12.725135
12.901943
10.868170
11.406302
11.060616
13.597110
12.924262
13.072923
14.073406
10.571492
11.211354
10.829899
13.246233
11.557738
11.452991
13.003595
11.288911
11.669378
11.510114
12.101170
11.826062
11.492467
11.007771
12.807476
11.829323
11.529057
11.932127
12.918679
11.989682
13.518349
11.138011
12.385574
11.350488
13.083362
11.693474
11.807838
12.197667
13.753103
11.030360
11.682177
11.941487
11.922425
10.904458
12.238774
12.730540
11.726212
11.326509
11.429597
11.665843
13.057335
12.982537
11.169663
10.287233
12.667391
12.601621
11.505393
12.740908
11.148735
12.731052
12.346475
11.810935
12.055608
12.151291
13.082732
12.004926
12.201635
12.505050
12.866951
12.609769
12.660559
11.181920
13.312395
13.001392
11.162942
12.174295
11.439388
11.312333
13.052156
11.479347
13.626153
10.936716
10.595376
10.950895
11.052151
11.307516
12.911054
12.818299
12.218425
13.012808
11.352120
11.303926
13.340297
12.062676
12.334985
11.649701
10.899170
12.411417
10.424878
12.281140
11.315472
13.040965
12.417742
12.858622
11.868631
12.899499
10.619038
10.515104
12.876911
12.711678
11.114075
12.590360
11.859344
11.491798
12.057671
11.428945
12.223130
12.171813
10.661639
11.461959
11.371654
11.391100
11.547728
12.429571
11.251838
11.290686
12.025997
12.373141
11.361507
11.955760
12.414815
12.334134
12.640295
12.488953
12.555008
12.454284
12.432123
10.864609
12.681222
10.512244
12.196346
12.482446
10.588744
9.657631
9.677720
9.817601
9.783367
9.845264
10.195767
10.318533
10.153959
10.175503
10.056238
10.014693
10.902257
10.817445
10.201290
10.482451
10.384749
10.063076
10.315518
10.247381
11.586776
11.518220
10.566551
10.603988
11.852543
11.763350
11.694002
11.271494
11.289790
11.155811
10.891305
11.030849
10.897244
11.008317
11.006914
10.950638
11.139666
11.081084
11.139422
12.000910
11.756548
10.375434
10.322241
10.279623
10.690737
10.527773
10.821217
10.894365
10.823936
10.755910
10.716164
10.739285
13.980196
13.894708
12.419076
12.533571
11.710301
11.743700
11.760813
11.876085
11.751644
11.737820
11.551739
11.299342
11.467756
11.049022
11.234845
11.149877
11.203896
11.097249
11.371561
11.648847
11.738927
11.852909
10.685727
10.698175
10.714696
10.735491
10.569452
12.680694
12.478609
12.499616
10.975659
11.086838
11.134372
12.434107
12.506381
12.331395
11.075185
10.739380
11.112493
11.573361
11.669010
11.564957
11.413044
11.340649
11.300365
10.940174
11.141863
11.162526
11.312941
11.531445
11.468886
10.737919
10.639939
10.822576
10.776293
10.685417
11.438286
11.487900
11.467989
9.924339
10.254528
10.005549
12.524822
12.392761
10.902167
10.854577
10.929254
11.027863
11.084351
11.118516
11.146452
10.703956
10.879738
10.716578
10.912616
11.038769
10.781031
12.031603
12.153753
12.217206
12.321110
12.484095
12.371742
11.840570
11.772187
11.855763
11.970982
11.851269
11.800197
12.838958
12.815287
12.801676
11.363357
11.493949
11.468300
11.486851
11.626382
11.522511
11.885861
12.004726
11.829021
12.182037
12.132200
12.187649
11.126877
11.111479
10.975437
10.636829
10.208177
9.507785
9.931691
10.454305
10.441960
10.783647
10.637338
10.846633
11.128533
11.180412
11.214847
11.146722
11.124219
11.382360
11.568562
11.574504
11.007696
11.137593
11.902210
12.040761
11.997013
14.066953
14.098167
11.409690
11.297043
11.277378
12.453069
12.424177
12.315032
13.379515
13.115093
12.074342
12.139492
12.106596
12.428899
12.575777
12.027163
11.874057
11.933596
12.091862
12.069293
11.977268
12.130221
12.017024
13.862670
13.667005
12.909183
12.788245
12.863127
12.660850
12.690118
12.753219
11.397098
11.326075
10.998783
12.437574
12.688949
12.555482
11.948975
12.048429
11.864926
10.886789
10.981972
10.855784
13.155886
13.296663
13.395179
13.706786
13.828401
13.651183
11.976367
11.784848
11.967531
11.947076
11.775751
11.681063
11.699488
11.684346
12.792463
12.690827
12.639806
13.323839
13.200865
13.202019
11.619428
11.495651
11.450760
12.756098
12.672856
12.773194
11.773624
11.810284
11.054050
10.899867
12.070110
12.197523
12.098327
13.266277
13.398997
13.426735
11.450673
11.415499
11.505719
12.574205
12.734470
12.707415
13.097738
13.052221
13.040206
12.641413
12.702443
12.534083
12.833970
12.983217
13.002481
12.438872
12.218186
12.397518
11.519490
11.547095
11.542566
13.106714
13.047769
13.066991
10.672191
10.530009
10.858943
10.796656
10.999085
11.334006
11.236318
11.376863
11.645183
11.741783
11.509522
11.556699
11.621208
12.906135
12.723345
12.865725
12.339017
12.226933
12.313908
11.958216
11.928848
11.879690
13.138938
13.221140
13.305497
11.985189
11.907072
11.849650
10.471575
10.217428
10.348931
10.233393
10.391561
10.564555
10.396823
11.495575
11.484758
11.525197
11.646479
11.771801
11.780188
12.972807
12.938201
12.990684
11.054579
11.102335
10.920813
11.029955
10.997555
11.114315
12.920756
12.886393
12.863449
11.547272
11.312578
11.270663
12.806033
12.975824
12.922877
12.759909
12.805061
12.785344
12.755019
12.965758
11.235765
11.569271
11.280800
11.479340
11.451460
11.468173
12.595083
12.496831
12.498345
11.405175
11.489533
11.443804
11.389395
11.346635
11.336251
11.224885
11.277470
11.203104
12.019470
12.134019
12.037908
11.881902
11.770937
11.874211
11.416656
11.364704
11.335039
12.324717
12.300100
12.439589
12.739830
12.748705
12.652686
12.869382
12.718142
12.403972
12.322576
12.389181
12.503784
12.489808
12.512196
10.718137
11.020410
10.889065
10.799892
12.570922
12.594107
12.611707
12.923673
13.154686
13.022125
11.417322
12.460502
12.435561
12.424610
12.595906
12.533055
10.604249
10.515787
10.579703
12.627983
12.672277
12.733049
12.607194
12.634821
12.685322
10.428517
12.609935
12.483313
12.474915
12.582858
12.551292
12.291326
12.305771
12.503494
12.450691
12.384742
11.400923
11.317088
11.576290
11.472059
12.370129
12.165946
12.404696
9.693183
10.184698
9.584369
12.952287
12.830119
12.886698
12.856126
11.800888
11.666205
11.911662
11.807164
10.853249
10.492470
11.179525
11.034828
10.684931
10.761463
12.018291
12.300515
12.503880
12.297827
12.272142
13.016707
13.169403
13.087589
12.534893
12.558165
12.800225
12.776740
12.674466
11.680772
11.729987
11.716207
13.393038
13.390181
13.288533
11.045107
11.323386
11.070029
11.443716
11.551818
11.366340
11.475519
11.423561
11.646333
11.510282
11.164668
11.455165
12.012072
11.662863
11.821538
10.760349
10.912279
10.927137
10.832837
11.371074
11.193129
11.040714
11.191404
11.541955
11.536339
11.295260
11.326853
11.423305
10.547052
10.669686
10.723921
10.621083
10.847005
10.687170
10.942751
10.876526
11.558337
11.547472
11.547474
10.379334
10.461442
12.842719
12.778341
12.894598
12.869932
11.189707
11.135319
11.152766
11.447377
11.296044
11.522258
11.632692
11.484461
12.188105
12.241740
12.248673
12.158091
12.214868
12.223668
12.387176
12.346183
12.115951
12.285751
12.282349
12.569981
12.545814
12.130433
12.013651
12.010616
11.917428
11.884918
12.077549
11.977010
11.457874
11.340154
11.517429
11.451484
12.343939
12.268209
12.225979
12.237385
12.283230
10.498093
10.431305
12.538474
12.422728
12.513764
10.709304
10.633672
11.679510
11.539242
11.386780
11.521703
11.533792
12.569776
12.692284
12.608564
11.595396
11.855138
11.914873
11.781356
11.789186
13.030377
12.765520
12.904386
11.055286
11.172435
11.115926
10.874707
11.412574
11.387534
11.223176
12.098499
12.015223
12.257869
12.170433
11.437788
11.518503
11.494188
12.109010
12.368232
12.197682
13.081711
12.709706
12.869452
12.873033
9.947564
10.152917
9.887059
9.918135
13.174152
13.147252
12.941514
13.079869
11.784433
11.896041
11.663967
11.791204
11.686797
11.416610
11.503174
11.240178
11.345639
13.975897
13.894503
13.995751
11.794081
11.923443
11.997974
11.849000
11.900506
10.826393
10.809539
10.908314
10.877838
12.730818
12.530831
12.658601
12.700015
11.335801
11.301778
11.522395
11.427760
12.037313
11.949503
12.005038
11.381283
11.450878
11.362294
12.076560
11.526898
11.458536
11.733556
11.430053
12.328528
11.744994
11.648129
11.391040
11.309406
11.231623
10.561196
10.514761
10.727978
10.638427
12.487143
12.471493
12.644564
11.385478
11.423342
13.538358
13.557875
13.752439
13.791402
13.599469
13.676793
12.600296
12.744765
12.916733
12.776412
12.000926
12.251311
12.214816
11.922829
12.103081
11.104223
11.059783
10.833997
10.889047
10.967855
12.091287
12.037246
12.375927
12.267185
11.014138
10.983812
11.778036
11.360852
11.543374
11.615621
12.703300
12.963493
12.844678
12.571403
12.778417
12.704638
12.944970
12.828293
11.184399
11.159782
11.193301
12.130219
12.272287
12.174489
12.238157
12.886778
12.997898
12.983846
12.863093
12.939861
13.045286
12.864774
11.313192
11.273287
11.244968
11.296706
12.762432
13.472732
13.427159
10.812336
11.057036
10.879328
10.787313
11.664015
11.711216
11.790432
11.733501
11.399588
11.478393
11.543735
11.462843
13.074327
12.829770
12.999227
10.776987
11.169948
11.038494
12.341447
13.031097
12.956055
12.944913
12.995153
9.828041
10.009035
9.803409
11.490103
11.422108
11.268881
11.398746
12.316075
12.550010
12.261242
12.286471
10.843007
10.616310
11.040082
10.839891
10.978091
10.966264
10.803426
10.906354
12.109580
12.171557
11.275694
11.250095
11.222285
11.714267
11.739911
11.657938
11.544479
11.005974
10.944721
11.014935
11.018846
10.011221
9.981576
11.881917
12.060594
12.016377
11.732571
11.667471
11.877881
11.485645
11.497866
11.521589
11.486731
11.507012
11.475221
11.554090
11.543125
11.550156
11.489330
12.491324
12.438442
12.507490
12.595444
12.755395
12.749960
12.756049
11.439047
11.607332
11.532660
11.741001
11.634734
11.551808
11.375734
11.487110
11.408355
11.320679
11.291323
11.350210
10.524883
10.388766
10.821636
10.624920
11.206758
11.375516
11.204207
11.202121
13.072114
12.564658
12.343490
12.463675
11.518791
11.355288
11.417285
11.641486
11.461531
13.155820
13.015131
10.313145
10.376422
12.029998
11.910754
12.049143
11.974680
11.620388
11.539187
11.584458
10.643523
10.907025
10.812955
10.784116
12.878014
12.892559
12.933189
12.908028
12.905735
12.026278
12.267259
12.206240
12.200606
11.511819
11.543421
11.533985
11.533756
10.696974
10.545282
10.507049
10.543312
12.012559
11.854016
11.780923
11.902890
10.889224
10.981881
10.847543
10.903644
11.770738
11.791820
11.299174
11.273428
11.402395
13.384290
13.337940
13.266714
12.138464
12.257828
12.276393
14.021079
14.054565
13.951913
12.462438
12.416359
12.400450
12.465414
12.444285
12.243690
12.474451
12.378597
12.796374
12.035599
12.208522
12.079683
12.037669
11.553429
11.718012
11.637677
11.585989
12.051369
11.851605
11.969385
10.992052
10.747891
12.811118
12.966991
12.876630
12.115995
12.155957
12.168617
12.792528
12.787406
12.813088
11.689388
11.464381
11.561807
12.362797
12.233762
12.048648
11.544297
11.548817
11.551017
11.696533
10.722792
10.482362
10.754718
10.596280
10.397772
10.427276
10.745877
10.585595
12.402049
12.423546
12.346223
12.363783
11.131981
11.152833
11.118685
11.582071
11.444889
11.434571
11.517432
10.876915
10.588563
11.170330
11.073333
11.069943
11.135292
11.121851
11.279558
11.207528
11.416371
11.061026
11.407763
10.430357
10.450508
10.419239
10.377040
11.100625
11.027438
12.399223
12.233788
12.100510
12.296450
12.264932
12.368256
12.407812
13.479933
13.573521
13.793799
13.651218
11.478177
11.185673
11.413150
11.023984
10.969346
11.021129
11.110492
11.019610
11.181019
11.250021
11.143762
11.193713
11.259994
11.199616
11.393319
11.383131
11.527400
12.817050
12.862957
12.867269
13.369459
13.501059
13.998224
14.121044
14.076521
11.868513
11.814992
11.837039
10.950067
10.817487
12.260259
12.339603
12.336191
13.099616
13.027731
13.021559
11.027896
10.965305
11.076697
11.052244
10.992579
11.345231
11.285575
11.352815
11.354443
13.514207
13.498114
13.638474
13.515377
10.464880
10.105860
10.302114
11.060226
10.745338
10.989452
10.880657
10.624555
10.748599
10.710893
10.257229
10.674928
10.479158
11.228113
11.088426
11.377235
11.259535
11.789180
12.204309
12.024997
12.145060
12.194393
11.953822
12.085678
11.536345
11.058142
10.781792
10.862509
12.229707
12.419024
11.165986
11.206132
11.085306
11.153370
13.702998
13.778918
13.782054
11.457237
11.763638
11.623038
11.698512
11.769155
11.822672
11.696007
11.750540
11.251653
11.056150
11.224115
11.846041
12.120366
12.230691
12.139301
11.450408
11.378238
11.348176
11.418924
10.663590
10.604122
10.259702
11.919188
11.881270
11.888753
10.439434
10.224872
12.129786
12.083849
11.533687
11.283470
11.211802
11.247194
12.506460
12.481696
11.840541
11.997500
11.921735
11.376547
11.282580
12.810780
12.761470
12.493686
12.382410
12.407673
11.579230
11.667748
10.886759
11.007078
11.058746
10.962437
13.136971
13.149812
13.159282
10.153274
10.263189
12.026640
12.153227
12.130603
12.673070
12.658042
11.846895
12.013721
11.927431
12.282712
11.888729
12.067354
12.093409
10.888336
11.124922
12.497062
12.362901
11.131665
11.170981
12.336251
12.360398
12.381818
10.615802
10.922603
10.694526
10.770505
12.809799
12.641290
12.744096
10.957701
10.762069
10.790833
12.764868
12.704741
12.733900
11.488127
11.718853
11.716106
11.584313
12.699465
12.618941
12.639401
12.695343
10.508897
10.629068
10.392438
11.172102
11.205331
11.435876
11.547483
11.497440
10.819874
10.917684
10.931995
11.921067
11.821729
11.170117
11.138713
11.227997
11.441350
11.466091
11.317034
11.222766
13.033682
13.348943
13.197038
12.173832
12.184628
12.109455
12.192904
11.035302
11.039767
11.097750
11.739721
11.838541
11.822792
11.866856
11.833400
11.742756
11.848818
11.920701
10.656635
12.233106
12.291642
12.242351
10.497986
10.429129
10.541555
10.519940
12.994713
13.038134
13.026791
11.481391
10.958705
10.662248
11.184723
12.417245
12.450987
11.650638
11.678278
11.428220
11.182961
11.508686
11.275424
11.503511
11.515257
12.277215
12.309889
12.268667
11.332741
11.212388
12.212713
11.361780
11.191509
12.822649
12.520673
12.683368
11.283009
11.499055
11.387383
11.452846
11.465559
11.462883
12.165417
11.854451
12.033614
12.957734
12.461616
10.997894
11.110640
12.228301
12.351781
12.084300
12.256785
11.635053
11.423865
11.459923
11.724300
11.776408
9.855558
10.038025
10.022265
11.232446
11.404080
11.107081
13.171821
13.260127
13.216234
11.360372
11.407017
11.194639
10.833121
10.834758
11.596000
11.633045
13.005996
12.712351
12.578212
12.656811
10.988390
10.915887
11.459244
11.462497
11.293136
11.377549
12.531570